LAMMPS Description

     560  atoms
     0  bonds
     0  angles
     0  dihedrals
     0  impropers

     4  atom types
     0  bond types
     0  angle types

  0.0 40.50 xlo xhi
  0.0 40.50 ylo yhi
  0.0 40.50 zlo zhi

Masses

1 15.9994  # O
2 1.008  # H
3 26.9815  # Al
4 15.9994  # OO

Atoms  # charge

1 1 -0.8476 0.0 0.0 0.0
2 2 0.4238 0.8164904 0.0 0.577359
3 2 0.4238 -0.8164904 0.0 0.577359
4 1 -0.8476 5.0 0.01 0.01
5 2 0.4238 5.8164904 0.01 0.587359
6 2 0.4238 4.1835096 0.01 0.587359
7 1 -0.8476 10.0 0.02 0.02
8 2 0.4238 10.8164904 0.02 0.597359
9 2 0.4238 9.1835096 0.02 0.597359
10 1 -0.8476 15.0 0.03 0.03
11 2 0.4238 15.8164904 0.03 0.607359
12 2 0.4238 14.1835096 0.03 0.607359
13 1 -0.8476 20.0 0.04 0.04
14 2 0.4238 20.8164904 0.04 0.617359
15 2 0.4238 19.1835096 0.04 0.617359
16 1 -0.8476 25.0 0.05 0.05
17 2 0.4238 25.8164904 0.05 0.627359
18 2 0.4238 24.1835096 0.05 0.627359
19 1 -0.8476 30.0 0.06 0.06
20 2 0.4238 30.8164904 0.06 0.637359
21 2 0.4238 29.1835096 0.06 0.637359
22 1 -0.8476 35.0 0.07 0.07
23 2 0.4238 35.8164904 0.07 0.647359
24 2 0.4238 34.1835096 0.07 0.647359
25 1 -0.8476 0.0 8.5 0.01
26 2 0.4238 0.8164904 8.5 0.587359
27 2 0.4238 -0.8164904 8.5 0.587359
28 1 -0.8476 5.0 8.51 0.02
29 2 0.4238 5.8164904 8.51 0.597359
30 2 0.4238 4.1835096 8.51 0.597359
31 1 -0.8476 10.0 8.52 0.03
32 2 0.4238 10.8164904 8.52 0.607359
33 2 0.4238 9.1835096 8.52 0.607359
34 1 -0.8476 15.0 8.53 0.04
35 2 0.4238 15.8164904 8.53 0.617359
36 2 0.4238 14.1835096 8.53 0.617359
37 1 -0.8476 20.0 8.54 0.05
38 2 0.4238 20.8164904 8.54 0.627359
39 2 0.4238 19.1835096 8.54 0.627359
40 1 -0.8476 25.0 8.55 0.06
41 2 0.4238 25.8164904 8.55 0.637359
42 2 0.4238 24.1835096 8.55 0.637359
43 1 -0.8476 30.0 8.56 0.07
44 2 0.4238 30.8164904 8.56 0.647359
45 2 0.4238 29.1835096 8.56 0.647359
46 1 -0.8476 35.0 8.57 0.08
47 2 0.4238 35.8164904 8.57 0.657359
48 2 0.4238 34.1835096 8.57 0.657359
49 1 -0.8476 0.0 17.0 0.02
50 2 0.4238 0.8164904 17.0 0.597359
51 2 0.4238 -0.8164904 17.0 0.597359
52 1 -0.8476 5.0 17.01 0.03
53 2 0.4238 5.8164904 17.01 0.607359
54 2 0.4238 4.1835096 17.01 0.607359
55 1 -0.8476 10.0 17.02 0.04
56 2 0.4238 10.8164904 17.02 0.617359
57 2 0.4238 9.1835096 17.02 0.617359
58 1 -0.8476 15.0 17.03 0.05
59 2 0.4238 15.8164904 17.03 0.627359
60 2 0.4238 14.1835096 17.03 0.627359
61 1 -0.8476 20.0 17.04 0.06
62 2 0.4238 20.8164904 17.04 0.637359
63 2 0.4238 19.1835096 17.04 0.637359
64 1 -0.8476 25.0 17.05 0.07
65 2 0.4238 25.8164904 17.05 0.647359
66 2 0.4238 24.1835096 17.05 0.647359
67 1 -0.8476 30.0 17.06 0.08
68 2 0.4238 30.8164904 17.06 0.657359
69 2 0.4238 29.1835096 17.06 0.657359
70 1 -0.8476 35.0 17.07 0.09
71 2 0.4238 35.8164904 17.07 0.667359
72 2 0.4238 34.1835096 17.07 0.667359
73 1 -0.8476 0.0 25.5 0.03
74 2 0.4238 0.8164904 25.5 0.607359
75 2 0.4238 -0.8164904 25.5 0.607359
76 1 -0.8476 5.0 25.51 0.04
77 2 0.4238 5.8164904 25.51 0.617359
78 2 0.4238 4.1835096 25.51 0.617359
79 1 -0.8476 10.0 25.52 0.05
80 2 0.4238 10.8164904 25.52 0.627359
81 2 0.4238 9.1835096 25.52 0.627359
82 1 -0.8476 15.0 25.53 0.06
83 2 0.4238 15.8164904 25.53 0.637359
84 2 0.4238 14.1835096 25.53 0.637359
85 1 -0.8476 20.0 25.54 0.07
86 2 0.4238 20.8164904 25.54 0.647359
87 2 0.4238 19.1835096 25.54 0.647359
88 1 -0.8476 25.0 25.55 0.08
89 2 0.4238 25.8164904 25.55 0.657359
90 2 0.4238 24.1835096 25.55 0.657359
91 1 -0.8476 30.0 25.56 0.09
92 2 0.4238 30.8164904 25.56 0.667359
93 2 0.4238 29.1835096 25.56 0.667359
94 1 -0.8476 35.0 25.57 0.1
95 2 0.4238 35.8164904 25.57 0.677359
96 2 0.4238 34.1835096 25.57 0.677359
97 1 -0.8476 0.0 34.0 0.04
98 2 0.4238 0.8164904 34.0 0.617359
99 2 0.4238 -0.8164904 34.0 0.617359
100 1 -0.8476 5.0 34.01 0.05
101 2 0.4238 5.8164904 34.01 0.627359
102 2 0.4238 4.1835096 34.01 0.627359
103 1 -0.8476 10.0 34.02 0.06
104 2 0.4238 10.8164904 34.02 0.637359
105 2 0.4238 9.1835096 34.02 0.637359
106 1 -0.8476 15.0 34.03 0.07
107 2 0.4238 15.8164904 34.03 0.647359
108 2 0.4238 14.1835096 34.03 0.647359
109 1 -0.8476 20.0 34.04 0.08
110 2 0.4238 20.8164904 34.04 0.657359
111 2 0.4238 19.1835096 34.04 0.657359
112 1 -0.8476 25.0 34.05 0.09
113 2 0.4238 25.8164904 34.05 0.667359
114 2 0.4238 24.1835096 34.05 0.667359
115 1 -0.8476 30.0 34.06 0.1
116 2 0.4238 30.8164904 34.06 0.677359
117 2 0.4238 29.1835096 34.06 0.677359
118 1 -0.8476 35.0 34.07 0.11
119 2 0.4238 35.8164904 34.07 0.687359
120 2 0.4238 34.1835096 34.07 0.687359
121 1 -0.8476 0.0 0.0 12.6
122 2 0.4238 0.8164904 0.0 13.177359
123 2 0.4238 -0.8164904 0.0 13.177359
124 1 -0.8476 5.0 0.01 12.61
125 2 0.4238 5.8164904 0.01 13.187359
126 2 0.4238 4.1835096 0.01 13.187359
127 1 -0.8476 10.0 0.02 12.62
128 2 0.4238 10.8164904 0.02 13.197359
129 2 0.4238 9.1835096 0.02 13.197359
130 1 -0.8476 15.0 0.03 12.63
131 2 0.4238 15.8164904 0.03 13.207359
132 2 0.4238 14.1835096 0.03 13.207359
133 1 -0.8476 20.0 0.04 12.64
134 2 0.4238 20.8164904 0.04 13.217359
135 2 0.4238 19.1835096 0.04 13.217359
136 1 -0.8476 25.0 0.05 12.65
137 2 0.4238 25.8164904 0.05 13.227359
138 2 0.4238 24.1835096 0.05 13.227359
139 1 -0.8476 30.0 0.06 12.66
140 2 0.4238 30.8164904 0.06 13.237359
141 2 0.4238 29.1835096 0.06 13.237359
142 1 -0.8476 35.0 0.07 12.67
143 2 0.4238 35.8164904 0.07 13.247359
144 2 0.4238 34.1835096 0.07 13.247359
145 1 -0.8476 0.0 8.5 12.61
146 2 0.4238 0.8164904 8.5 13.187359
147 2 0.4238 -0.8164904 8.5 13.187359
148 1 -0.8476 5.0 8.51 12.62
149 2 0.4238 5.8164904 8.51 13.197359
150 2 0.4238 4.1835096 8.51 13.197359
151 1 -0.8476 10.0 8.52 12.63
152 2 0.4238 10.8164904 8.52 13.207359
153 2 0.4238 9.1835096 8.52 13.207359
154 1 -0.8476 15.0 8.53 12.64
155 2 0.4238 15.8164904 8.53 13.217359
156 2 0.4238 14.1835096 8.53 13.217359
157 1 -0.8476 20.0 8.54 12.65
158 2 0.4238 20.8164904 8.54 13.227359
159 2 0.4238 19.1835096 8.54 13.227359
160 1 -0.8476 25.0 8.55 12.66
161 2 0.4238 25.8164904 8.55 13.237359
162 2 0.4238 24.1835096 8.55 13.237359
163 1 -0.8476 30.0 8.56 12.67
164 2 0.4238 30.8164904 8.56 13.247359
165 2 0.4238 29.1835096 8.56 13.247359
166 1 -0.8476 35.0 8.57 12.68
167 2 0.4238 35.8164904 8.57 13.257359
168 2 0.4238 34.1835096 8.57 13.257359
169 1 -0.8476 0.0 17.0 12.62
170 2 0.4238 0.8164904 17.0 13.197359
171 2 0.4238 -0.8164904 17.0 13.197359
172 1 -0.8476 5.0 17.01 12.63
173 2 0.4238 5.8164904 17.01 13.207359
174 2 0.4238 4.1835096 17.01 13.207359
175 1 -0.8476 10.0 17.02 12.64
176 2 0.4238 10.8164904 17.02 13.217359
177 2 0.4238 9.1835096 17.02 13.217359
178 1 -0.8476 15.0 17.03 12.65
179 2 0.4238 15.8164904 17.03 13.227359
180 2 0.4238 14.1835096 17.03 13.227359
181 1 -0.8476 20.0 17.04 12.66
182 2 0.4238 20.8164904 17.04 13.237359
183 2 0.4238 19.1835096 17.04 13.237359
184 1 -0.8476 25.0 17.05 12.67
185 2 0.4238 25.8164904 17.05 13.247359
186 2 0.4238 24.1835096 17.05 13.247359
187 1 -0.8476 30.0 17.06 12.68
188 2 0.4238 30.8164904 17.06 13.257359
189 2 0.4238 29.1835096 17.06 13.257359
190 1 -0.8476 35.0 17.07 12.69
191 2 0.4238 35.8164904 17.07 13.267359
192 2 0.4238 34.1835096 17.07 13.267359
193 1 -0.8476 0.0 25.5 12.63
194 2 0.4238 0.8164904 25.5 13.207359
195 2 0.4238 -0.8164904 25.5 13.207359
196 1 -0.8476 5.0 25.51 12.64
197 2 0.4238 5.8164904 25.51 13.217359
198 2 0.4238 4.1835096 25.51 13.217359
199 1 -0.8476 10.0 25.52 12.65
200 2 0.4238 10.8164904 25.52 13.227359
201 2 0.4238 9.1835096 25.52 13.227359
202 1 -0.8476 15.0 25.53 12.66
203 2 0.4238 15.8164904 25.53 13.237359
204 2 0.4238 14.1835096 25.53 13.237359
205 1 -0.8476 20.0 25.54 12.67
206 2 0.4238 20.8164904 25.54 13.247359
207 2 0.4238 19.1835096 25.54 13.247359
208 1 -0.8476 25.0 25.55 12.68
209 2 0.4238 25.8164904 25.55 13.257359
210 2 0.4238 24.1835096 25.55 13.257359
211 1 -0.8476 30.0 25.56 12.69
212 2 0.4238 30.8164904 25.56 13.267359
213 2 0.4238 29.1835096 25.56 13.267359
214 1 -0.8476 35.0 25.57 12.7
215 2 0.4238 35.8164904 25.57 13.277359
216 2 0.4238 34.1835096 25.57 13.277359
217 1 -0.8476 0.0 34.0 12.64
218 2 0.4238 0.8164904 34.0 13.217359
219 2 0.4238 -0.8164904 34.0 13.217359
220 1 -0.8476 5.0 34.01 12.65
221 2 0.4238 5.8164904 34.01 13.227359
222 2 0.4238 4.1835096 34.01 13.227359
223 1 -0.8476 10.0 34.02 12.66
224 2 0.4238 10.8164904 34.02 13.237359
225 2 0.4238 9.1835096 34.02 13.237359
226 1 -0.8476 15.0 34.03 12.67
227 2 0.4238 15.8164904 34.03 13.247359
228 2 0.4238 14.1835096 34.03 13.247359
229 1 -0.8476 20.0 34.04 12.68
230 2 0.4238 20.8164904 34.04 13.257359
231 2 0.4238 19.1835096 34.04 13.257359
232 1 -0.8476 25.0 34.05 12.69
233 2 0.4238 25.8164904 34.05 13.267359
234 2 0.4238 24.1835096 34.05 13.267359
235 1 -0.8476 30.0 34.06 12.7
236 2 0.4238 30.8164904 34.06 13.277359
237 2 0.4238 29.1835096 34.06 13.277359
238 1 -0.8476 35.0 34.07 12.71
239 2 0.4238 35.8164904 34.07 13.287359
240 2 0.4238 34.1835096 34.07 13.287359
241 1 -0.8476 0.0 0.0 25.2
242 2 0.4238 0.8164904 0.0 25.777359
243 2 0.4238 -0.8164904 0.0 25.777359
244 1 -0.8476 5.0 0.01 25.21
245 2 0.4238 5.8164904 0.01 25.787359
246 2 0.4238 4.1835096 0.01 25.787359
247 1 -0.8476 10.0 0.02 25.22
248 2 0.4238 10.8164904 0.02 25.797359
249 2 0.4238 9.1835096 0.02 25.797359
250 1 -0.8476 15.0 0.03 25.23
251 2 0.4238 15.8164904 0.03 25.807359
252 2 0.4238 14.1835096 0.03 25.807359
253 1 -0.8476 20.0 0.04 25.24
254 2 0.4238 20.8164904 0.04 25.817359
255 2 0.4238 19.1835096 0.04 25.817359
256 1 -0.8476 25.0 0.05 25.25
257 2 0.4238 25.8164904 0.05 25.827359
258 2 0.4238 24.1835096 0.05 25.827359
259 1 -0.8476 30.0 0.06 25.26
260 2 0.4238 30.8164904 0.06 25.837359
261 2 0.4238 29.1835096 0.06 25.837359
262 1 -0.8476 35.0 0.07 25.27
263 2 0.4238 35.8164904 0.07 25.847359
264 2 0.4238 34.1835096 0.07 25.847359
265 1 -0.8476 0.0 8.5 25.21
266 2 0.4238 0.8164904 8.5 25.787359
267 2 0.4238 -0.8164904 8.5 25.787359
268 1 -0.8476 5.0 8.51 25.22
269 2 0.4238 5.8164904 8.51 25.797359
270 2 0.4238 4.1835096 8.51 25.797359
271 1 -0.8476 10.0 8.52 25.23
272 2 0.4238 10.8164904 8.52 25.807359
273 2 0.4238 9.1835096 8.52 25.807359
274 1 -0.8476 15.0 8.53 25.24
275 2 0.4238 15.8164904 8.53 25.817359
276 2 0.4238 14.1835096 8.53 25.817359
277 1 -0.8476 20.0 8.54 25.25
278 2 0.4238 20.8164904 8.54 25.827359
279 2 0.4238 19.1835096 8.54 25.827359
280 1 -0.8476 25.0 8.55 25.26
281 2 0.4238 25.8164904 8.55 25.837359
282 2 0.4238 24.1835096 8.55 25.837359
283 1 -0.8476 30.0 8.56 25.27
284 2 0.4238 30.8164904 8.56 25.847359
285 2 0.4238 29.1835096 8.56 25.847359
286 1 -0.8476 35.0 8.57 25.28
287 2 0.4238 35.8164904 8.57 25.857359
288 2 0.4238 34.1835096 8.57 25.857359
289 1 -0.8476 0.0 17.0 25.22
290 2 0.4238 0.8164904 17.0 25.797359
291 2 0.4238 -0.8164904 17.0 25.797359
292 1 -0.8476 5.0 17.01 25.23
293 2 0.4238 5.8164904 17.01 25.807359
294 2 0.4238 4.1835096 17.01 25.807359
295 1 -0.8476 10.0 17.02 25.24
296 2 0.4238 10.8164904 17.02 25.817359
297 2 0.4238 9.1835096 17.02 25.817359
298 1 -0.8476 15.0 17.03 25.25
299 2 0.4238 15.8164904 17.03 25.827359
300 2 0.4238 14.1835096 17.03 25.827359
301 1 -0.8476 20.0 17.04 25.26
302 2 0.4238 20.8164904 17.04 25.837359
303 2 0.4238 19.1835096 17.04 25.837359
304 1 -0.8476 25.0 17.05 25.27
305 2 0.4238 25.8164904 17.05 25.847359
306 2 0.4238 24.1835096 17.05 25.847359
307 1 -0.8476 30.0 17.06 25.28
308 2 0.4238 30.8164904 17.06 25.857359
309 2 0.4238 29.1835096 17.06 25.857359
310 1 -0.8476 35.0 17.07 25.29
311 2 0.4238 35.8164904 17.07 25.867359
312 2 0.4238 34.1835096 17.07 25.867359
313 1 -0.8476 0.0 25.5 25.23
314 2 0.4238 0.8164904 25.5 25.807359
315 2 0.4238 -0.8164904 25.5 25.807359
316 1 -0.8476 5.0 25.51 25.24
317 2 0.4238 5.8164904 25.51 25.817359
318 2 0.4238 4.1835096 25.51 25.817359
319 1 -0.8476 10.0 25.52 25.25
320 2 0.4238 10.8164904 25.52 25.827359
321 2 0.4238 9.1835096 25.52 25.827359
322 1 -0.8476 15.0 25.53 25.26
323 2 0.4238 15.8164904 25.53 25.837359
324 2 0.4238 14.1835096 25.53 25.837359
325 1 -0.8476 20.0 25.54 25.27
326 2 0.4238 20.8164904 25.54 25.847359
327 2 0.4238 19.1835096 25.54 25.847359
328 1 -0.8476 25.0 25.55 25.28
329 2 0.4238 25.8164904 25.55 25.857359
330 2 0.4238 24.1835096 25.55 25.857359
331 1 -0.8476 30.0 25.56 25.29
332 2 0.4238 30.8164904 25.56 25.867359
333 2 0.4238 29.1835096 25.56 25.867359
334 1 -0.8476 35.0 25.57 25.3
335 2 0.4238 35.8164904 25.57 25.877359
336 2 0.4238 34.1835096 25.57 25.877359
337 1 -0.8476 0.0 34.0 25.24
338 2 0.4238 0.8164904 34.0 25.817359
339 2 0.4238 -0.8164904 34.0 25.817359
340 1 -0.8476 5.0 34.01 25.25
341 2 0.4238 5.8164904 34.01 25.827359
342 2 0.4238 4.1835096 34.01 25.827359
343 1 -0.8476 10.0 34.02 25.26
344 2 0.4238 10.8164904 34.02 25.837359
345 2 0.4238 9.1835096 34.02 25.837359
346 1 -0.8476 15.0 34.03 25.27
347 2 0.4238 15.8164904 34.03 25.847359
348 2 0.4238 14.1835096 34.03 25.847359
349 1 -0.8476 20.0 34.04 25.28
350 2 0.4238 20.8164904 34.04 25.857359
351 2 0.4238 19.1835096 34.04 25.857359
352 1 -0.8476 25.0 34.05 25.29
353 2 0.4238 25.8164904 34.05 25.867359
354 2 0.4238 24.1835096 34.05 25.867359
355 1 -0.8476 30.0 34.06 25.3
356 2 0.4238 30.8164904 34.06 25.877359
357 2 0.4238 29.1835096 34.06 25.877359
358 1 -0.8476 35.0 34.07 25.31
359 2 0.4238 35.8164904 34.07 25.887359
360 2 0.4238 34.1835096 34.07 25.887359
361 1 -0.8476 0.0 0.0 37.8
362 2 0.4238 0.8164904 0.0 38.377359
363 2 0.4238 -0.8164904 0.0 38.377359
364 1 -0.8476 5.0 0.01 37.81
365 2 0.4238 5.8164904 0.01 38.387359
366 2 0.4238 4.1835096 0.01 38.387359
367 1 -0.8476 10.0 0.02 37.82
368 2 0.4238 10.8164904 0.02 38.397359
369 2 0.4238 9.1835096 0.02 38.397359
370 1 -0.8476 15.0 0.03 37.83
371 2 0.4238 15.8164904 0.03 38.407359
372 2 0.4238 14.1835096 0.03 38.407359
373 1 -0.8476 20.0 0.04 37.84
374 2 0.4238 20.8164904 0.04 38.417359
375 2 0.4238 19.1835096 0.04 38.417359
376 1 -0.8476 25.0 0.05 37.85
377 2 0.4238 25.8164904 0.05 38.427359
378 2 0.4238 24.1835096 0.05 38.427359
379 1 -0.8476 30.0 0.06 37.86
380 2 0.4238 30.8164904 0.06 38.437359
381 2 0.4238 29.1835096 0.06 38.437359
382 1 -0.8476 35.0 0.07 37.87
383 2 0.4238 35.8164904 0.07 38.447359
384 2 0.4238 34.1835096 0.07 38.447359
385 1 -0.8476 0.0 8.5 37.81
386 2 0.4238 0.8164904 8.5 38.387359
387 2 0.4238 -0.8164904 8.5 38.387359
388 1 -0.8476 5.0 8.51 37.82
389 2 0.4238 5.8164904 8.51 38.397359
390 2 0.4238 4.1835096 8.51 38.397359
391 1 -0.8476 10.0 8.52 37.83
392 2 0.4238 10.8164904 8.52 38.407359
393 2 0.4238 9.1835096 8.52 38.407359
394 1 -0.8476 15.0 8.53 37.84
395 2 0.4238 15.8164904 8.53 38.417359
396 2 0.4238 14.1835096 8.53 38.417359
397 1 -0.8476 20.0 8.54 37.85
398 2 0.4238 20.8164904 8.54 38.427359
399 2 0.4238 19.1835096 8.54 38.427359
400 1 -0.8476 25.0 8.55 37.86
401 2 0.4238 25.8164904 8.55 38.437359
402 2 0.4238 24.1835096 8.55 38.437359
403 1 -0.8476 30.0 8.56 37.87
404 2 0.4238 30.8164904 8.56 38.447359
405 2 0.4238 29.1835096 8.56 38.447359
406 1 -0.8476 35.0 8.57 37.88
407 2 0.4238 35.8164904 8.57 38.457359
408 2 0.4238 34.1835096 8.57 38.457359
409 1 -0.8476 0.0 17.0 37.82
410 2 0.4238 0.8164904 17.0 38.397359
411 2 0.4238 -0.8164904 17.0 38.397359
412 1 -0.8476 5.0 17.01 37.83
413 2 0.4238 5.8164904 17.01 38.407359
414 2 0.4238 4.1835096 17.01 38.407359
415 1 -0.8476 10.0 17.02 37.84
416 2 0.4238 10.8164904 17.02 38.417359
417 2 0.4238 9.1835096 17.02 38.417359
418 1 -0.8476 15.0 17.03 37.85
419 2 0.4238 15.8164904 17.03 38.427359
420 2 0.4238 14.1835096 17.03 38.427359
421 1 -0.8476 20.0 17.04 37.86
422 2 0.4238 20.8164904 17.04 38.437359
423 2 0.4238 19.1835096 17.04 38.437359
424 1 -0.8476 25.0 17.05 37.87
425 2 0.4238 25.8164904 17.05 38.447359
426 2 0.4238 24.1835096 17.05 38.447359
427 1 -0.8476 30.0 17.06 37.88
428 2 0.4238 30.8164904 17.06 38.457359
429 2 0.4238 29.1835096 17.06 38.457359
430 1 -0.8476 35.0 17.07 37.89
431 2 0.4238 35.8164904 17.07 38.467359
432 2 0.4238 34.1835096 17.07 38.467359
433 1 -0.8476 0.0 25.5 37.83
434 2 0.4238 0.8164904 25.5 38.407359
435 2 0.4238 -0.8164904 25.5 38.407359
436 1 -0.8476 5.0 25.51 37.84
437 2 0.4238 5.8164904 25.51 38.417359
438 2 0.4238 4.1835096 25.51 38.417359
439 1 -0.8476 10.0 25.52 37.85
440 2 0.4238 10.8164904 25.52 38.427359
441 2 0.4238 9.1835096 25.52 38.427359
442 1 -0.8476 15.0 25.53 37.86
443 2 0.4238 15.8164904 25.53 38.437359
444 2 0.4238 14.1835096 25.53 38.437359
445 1 -0.8476 20.0 25.54 37.87
446 2 0.4238 20.8164904 25.54 38.447359
447 2 0.4238 19.1835096 25.54 38.447359
448 1 -0.8476 25.0 25.55 37.88
449 2 0.4238 25.8164904 25.55 38.457359
450 2 0.4238 24.1835096 25.55 38.457359
451 1 -0.8476 30.0 25.56 37.89
452 2 0.4238 30.8164904 25.56 38.467359
453 2 0.4238 29.1835096 25.56 38.467359
454 1 -0.8476 35.0 25.57 37.9
455 2 0.4238 35.8164904 25.57 38.477359
456 2 0.4238 34.1835096 25.57 38.477359
457 1 -0.8476 0.0 34.0 37.84
458 2 0.4238 0.8164904 34.0 38.417359
459 2 0.4238 -0.8164904 34.0 38.417359
460 1 -0.8476 5.0 34.01 37.85
461 2 0.4238 5.8164904 34.01 38.427359
462 2 0.4238 4.1835096 34.01 38.427359
463 1 -0.8476 10.0 34.02 37.86
464 2 0.4238 10.8164904 34.02 38.437359
465 2 0.4238 9.1835096 34.02 38.437359
466 1 -0.8476 15.0 34.03 37.87
467 2 0.4238 15.8164904 34.03 38.447359
468 2 0.4238 14.1835096 34.03 38.447359
469 1 -0.8476 20.0 34.04 37.88
470 2 0.4238 20.8164904 34.04 38.457359
471 2 0.4238 19.1835096 34.04 38.457359
472 1 -0.8476 25.0 34.05 37.89
473 2 0.4238 25.8164904 34.05 38.467359
474 2 0.4238 24.1835096 34.05 38.467359
475 1 -0.8476 30.0 34.06 37.9
476 2 0.4238 30.8164904 34.06 38.477359
477 2 0.4238 29.1835096 34.06 38.477359
478 1 -0.8476 35.0 34.07 37.91
479 2 0.4238 35.8164904 34.07 38.487359
480 2 0.4238 34.1835096 34.07 38.487359
481 3 3.0 8.0 8.0 8.0
482 3 3.0 18.25 8.0 8.0
483 3 3.0 28.5 8.0 8.0
484 3 3.0 38.75 8.0 8.0
485 3 3.0 8.0 17.25 8.0
486 3 3.0 18.25 17.25 8.0
487 3 3.0 28.5 17.25 8.0
488 3 3.0 38.75 17.25 8.0
489 3 3.0 8.0 26.5 8.0
490 3 3.0 18.25 26.5 8.0
491 3 3.0 28.5 26.5 8.0
492 3 3.0 38.75 26.5 8.0
493 3 3.0 8.0 35.75 8.0
494 3 3.0 18.25 35.75 8.0
495 3 3.0 28.5 35.75 8.0
496 3 3.0 38.75 35.75 8.0
497 3 3.0 8.0 8.0 30.25
498 3 3.0 18.25 8.0 30.25
499 3 3.0 28.5 8.0 30.25
500 3 3.0 38.75 8.0 30.25
501 3 3.0 8.0 17.25 30.25
502 3 3.0 18.25 17.25 30.25
503 3 3.0 28.5 17.25 30.25
504 3 3.0 38.75 17.25 30.25
505 3 3.0 8.0 26.5 30.25
506 3 3.0 18.25 26.5 30.25
507 3 3.0 28.5 26.5 30.25
508 3 3.0 38.75 26.5 30.25
509 3 3.0 8.0 35.75 30.25
510 3 3.0 18.25 35.75 30.25
511 3 3.0 28.5 35.75 30.25
512 3 3.0 38.75 35.75 30.25
513 4 -2.0 3.0 3.0 3.0
514 4 -2.0 13.25 3.0 3.0
515 4 -2.0 23.5 3.0 3.0
516 4 -2.0 33.75 3.0 3.0
517 4 -2.0 3.0 14.25 3.0
518 4 -2.0 13.25 14.25 3.0
519 4 -2.0 23.5 14.25 3.0
520 4 -2.0 33.75 14.25 3.0
521 4 -2.0 3.0 25.5 3.0
522 4 -2.0 13.25 25.5 3.0
523 4 -2.0 23.5 25.5 3.0
524 4 -2.0 33.75 25.5 3.0
525 4 -2.0 3.0 36.75 3.0
526 4 -2.0 13.25 36.75 3.0
527 4 -2.0 23.5 36.75 3.0
528 4 -2.0 33.75 36.75 3.0
529 4 -2.0 3.0 3.0 17.25
530 4 -2.0 13.25 3.0 17.25
531 4 -2.0 23.5 3.0 17.25
532 4 -2.0 33.75 3.0 17.25
533 4 -2.0 3.0 14.25 17.25
534 4 -2.0 13.25 14.25 17.25
535 4 -2.0 23.5 14.25 17.25
536 4 -2.0 33.75 14.25 17.25
537 4 -2.0 3.0 25.5 17.25
538 4 -2.0 13.25 25.5 17.25
539 4 -2.0 23.5 25.5 17.25
540 4 -2.0 33.75 25.5 17.25
541 4 -2.0 3.0 36.75 17.25
542 4 -2.0 13.25 36.75 17.25
543 4 -2.0 23.5 36.75 17.25
544 4 -2.0 33.75 36.75 17.25
545 4 -2.0 3.0 3.0 31.5
546 4 -2.0 13.25 3.0 31.5
547 4 -2.0 23.5 3.0 31.5
548 4 -2.0 33.75 3.0 31.5
549 4 -2.0 3.0 14.25 31.5
550 4 -2.0 13.25 14.25 31.5
551 4 -2.0 23.5 14.25 31.5
552 4 -2.0 33.75 14.25 31.5
553 4 -2.0 3.0 25.5 31.5
554 4 -2.0 13.25 25.5 31.5
555 4 -2.0 23.5 25.5 31.5
556 4 -2.0 33.75 25.5 31.5
557 4 -2.0 3.0 36.75 31.5
558 4 -2.0 13.25 36.75 31.5
559 4 -2.0 23.5 36.75 31.5
560 4 -2.0 33.75 36.75 31.5
